; Energy minimization — CHARMM36 cutoffs
integrator      = steep
nsteps          = 5000
emtol           = 1000.0
emstep          = 0.01
cutoff-scheme   = Verlet
nstlist         = 20
rlist           = 1.2
coulombtype     = PME
rcoulomb        = 1.2
vdwtype         = cutoff
vdw-modifier    = force-switch
rvdw-switch     = 1.0
rvdw            = 1.2
pbc             = xyz
constraints     = none
